# Time Dx Dy Dz magD
2.5e-05 0 2.71495e-12 -5.81506e-14 2.71557e-12
5e-05 0 1.19232e-11 -3.38985e-13 1.1928e-11
7.5e-05 0 3.13769e-11 -1.17908e-12 3.13991e-11
0.0001 0 6.42833e-11 -3.12935e-12 6.43595e-11
0.000125 0 1.12786e-10 -6.91454e-12 1.12998e-10
0.00015 0 1.77776e-10 -1.32902e-11 1.78272e-10
0.000175 0 2.58954e-10 -2.28566e-11 2.59961e-10
0.0002 0 3.55405e-10 -3.58942e-11 3.57213e-10
0.000225 0 4.66192e-10 -5.23137e-11 4.69118e-10
0.00025 0 5.90995e-10 -7.17423e-11 5.95333e-10
0.000275 0 7.30463e-10 -9.37423e-11 7.36454e-10
0.0003 0 8.86185e-10 -1.18071e-10 8.94016e-10
0.000325 0 1.06039e-09 -1.44898e-10 1.07024e-09
0.00035 0 1.25553e-09 -1.74902e-10 1.26766e-09
0.000375 0 1.47385e-09 -2.09213e-10 1.48862e-09
0.0004 0 1.71733e-09 -2.49247e-10 1.73533e-09
0.000425 0 1.98771e-09 -2.96503e-10 2.00971e-09
0.00045 0 2.28659e-09 -3.52401e-10 2.31358e-09
0.000475 0 2.61562e-09 -4.1824e-10 2.64885e-09
0.0005 0 2.97677e-09 -4.95277e-10 3.01769e-09
0.000525 0 3.37236e-09 -5.84916e-10 3.42271e-09
0.00055 0 3.80516e-09 -6.88925e-10 3.86702e-09
0.000575 0 4.27821e-09 -8.0963e-10 4.35415e-09
0.0006 0 4.79481e-09 -9.50041e-10 4.88803e-09
0.000625 0 5.35837e-09 -1.1139e-09 5.47293e-09
0.00065 0 5.97242e-09 -1.30569e-09 6.11348e-09
0.000675 0 6.6406e-09 -1.53061e-09 6.81472e-09
0.0007 0 7.36675e-09 -1.79463e-09 7.5822e-09
0.000725 0 8.15496e-09 -2.10458e-09 8.42215e-09
0.00075 0 9.00966e-09 -2.46832e-09 9.34166e-09
0.000775 0 9.93564e-09 -2.89501e-09 1.03488e-08
0.0008 0 1.09385e-08 -3.39539e-09 1.14534e-08
0.000825 0 1.2024e-08 -3.9821e-09 1.26662e-08
0.00085 0 1.3198e-08 -4.67009e-09 1.39999e-08
0.000875 0 1.4467e-08 -5.47703e-09 1.54691e-08
0.0009 0 1.58377e-08 -6.42395e-09 1.7091e-08
0.000925 0 1.73174e-08 -7.53593e-09 1.8886e-08
0.00095 0 1.89138e-08 -8.8433e-09 2.08791e-08
0.000975 0 2.06356e-08 -1.03829e-08 2.31005e-08
0.001 0 2.24921e-08 -1.22004e-08 2.5588e-08
0.001025 0 2.44937e-08 -1.43521e-08 2.83888e-08
0.00105 0 2.66517e-08 -1.69089e-08 3.1563e-08
0.001075 0 2.89792e-08 -1.99596e-08 3.51877e-08
0.0011 0 3.14905e-08 -2.36156e-08 3.93618e-08
0.001125 0 3.42018e-08 -2.80169e-08 4.42121e-08
0.00115 0 3.71315e-08 -3.33378e-08 4.99015e-08
0.001175 0 4.03002e-08 -3.97943e-08 5.66365e-08
0.0012 0 4.3731e-08 -4.76517e-08 6.46768e-08
0.001225 0 4.74497e-08 -5.72326e-08 7.43441e-08
0.00125 0 5.14847e-08 -6.89248e-08 8.60308e-08
0.001275 0 5.58671e-08 -8.3189e-08 1.00208e-07
0.0013 0 6.06307e-08 -1.00566e-07 1.17429e-07
0.001325 0 6.58109e-08 -1.21679e-07 1.38336e-07
0.00135 0 7.14452e-08 -1.47244e-07 1.63662e-07
0.001375 0 7.75716e-08 -1.7806e-07 1.94223e-07
0.0014 0 8.42283e-08 -2.15016e-07 2.30925e-07
0.001425 0 9.14525e-08 -2.59081e-07 2.74748e-07
0.00145 0 9.92794e-08 -3.11294e-07 3.26742e-07
0.001475 0 1.07741e-07 -3.72753e-07 3.88012e-07
0.0015 0 1.16866e-07 -4.44598e-07 4.59701e-07
0.001525 0 1.26676e-07 -5.27992e-07 5.42976e-07
0.00155 0 1.37188e-07 -6.24099e-07 6.38999e-07
0.001575 0 1.48414e-07 -7.34058e-07 7.48912e-07
0.0016 0 1.60357e-07 -8.58966e-07 8.73806e-07
0.001625 0 1.73014e-07 -9.99846e-07 1.0147e-06
0.00165 0 1.86377e-07 -1.15763e-06 1.17254e-06
0.001675 0 2.00427e-07 -1.33314e-06 1.34813e-06
0.0017 0 2.15143e-07 -1.52708e-06 1.54216e-06
0.001725 0 2.30505e-07 -1.73999e-06 1.75519e-06
0.00175 0 2.46489e-07 -1.97228e-06 1.98763e-06
0.001775 0 2.63071e-07 -2.22423e-06 2.23973e-06
0.0018 0 2.80232e-07 -2.49593e-06 2.51161e-06
0.001825 0 2.97951e-07 -2.78736e-06 2.80324e-06
0.00185 0 3.16216e-07 -3.09838e-06 3.11447e-06
0.001875 0 3.35015e-07 -3.42871e-06 3.44504e-06
0.0019 0 3.54348e-07 -3.77798e-06 3.79456e-06
0.001925 0 3.74217e-07 -4.14576e-06 4.16261e-06
0.00195 0 3.94632e-07 -4.53152e-06 4.54867e-06
0.001975 0 4.15609e-07 -4.93471e-06 4.95218e-06
0.002 0 4.37171e-07 -5.35475e-06 5.37256e-06
0.002025 0 4.59345e-07 -5.79103e-06 5.80922e-06
0.00205 0 4.82164e-07 -6.24296e-06 6.26155e-06
0.002075 0 5.05664e-07 -6.70994e-06 6.72896e-06
0.0021 0 5.29885e-07 -7.19137e-06 7.21087e-06
0.002125 0 5.54869e-07 -7.68672e-06 7.70672e-06
0.00215 0 5.80659e-07 -8.19542e-06 8.21597e-06
0.002175 0 6.073e-07 -8.71697e-06 8.7381e-06
0.0022 0 6.34837e-07 -9.25088e-06 9.27264e-06
0.002225 0 6.63318e-07 -9.79667e-06 9.8191e-06
0.00225 0 6.92788e-07 -1.03539e-05 1.0377e-05
0.002275 0 7.23295e-07 -1.09221e-05 1.09461e-05
0.0023 0 7.54886e-07 -1.1501e-05 1.15257e-05
0.002325 0 7.87608e-07 -1.209e-05 1.21156e-05
0.00235 0 8.2151e-07 -1.26888e-05 1.27154e-05
0.002375 0 8.56641e-07 -1.32971e-05 1.33246e-05
0.0024 0 8.9305e-07 -1.39144e-05 1.3943e-05
0.002425 0 9.30789e-07 -1.45404e-05 1.45702e-05
0.00245 0 9.69908e-07 -1.51748e-05 1.52058e-05
0.002475 0 1.01046e-06 -1.58173e-05 1.58495e-05
0.0025 0 1.0525e-06 -1.64674e-05 1.6501e-05
0.002525 0 1.09608e-06 -1.7125e-05 1.716e-05
0.00255 0 1.14125e-06 -1.77896e-05 1.78262e-05
0.002575 0 1.18808e-06 -1.8461e-05 1.84992e-05
0.0026 0 1.23662e-06 -1.91388e-05 1.91787e-05
0.002625 0 1.28693e-06 -1.98229e-05 1.98646e-05
0.00265 0 1.33907e-06 -2.05128e-05 2.05565e-05
0.002675 0 1.3931e-06 -2.12084e-05 2.12541e-05
0.0027 0 1.44909e-06 -2.19094e-05 2.19572e-05
0.002725 0 1.50711e-06 -2.26154e-05 2.26656e-05
0.00275 0 1.56722e-06 -2.33264e-05 2.3379e-05
0.002775 0 1.62949e-06 -2.40419e-05 2.40971e-05
0.0028 0 1.69401e-06 -2.47618e-05 2.48197e-05
0.002825 0 1.76084e-06 -2.54859e-05 2.55467e-05
0.00285 0 1.83007e-06 -2.62139e-05 2.62778e-05
0.002875 0 1.90179e-06 -2.69457e-05 2.70127e-05
0.0029 0 1.97608e-06 -2.76809e-05 2.77514e-05
0.002925 0 2.05306e-06 -2.84195e-05 2.84936e-05
0.00295 0 2.13282e-06 -2.91612e-05 2.92391e-05
0.002975 0 2.21547e-06 -2.99058e-05 2.99878e-05
0.003 0 2.30113e-06 -3.06532e-05 3.07394e-05
0.003025 0 2.38995e-06 -3.14031e-05 3.14939e-05
0.00305 0 2.48204e-06 -3.21554e-05 3.22511e-05
0.003075 0 2.57754e-06 -3.291e-05 3.30108e-05
0.0031 0 2.6766e-06 -3.36666e-05 3.37728e-05
0.003125 0 2.77937e-06 -3.44251e-05 3.45371e-05
0.00315 0 2.88603e-06 -3.51853e-05 3.53034e-05
0.003175 0 2.99678e-06 -3.5947e-05 3.60717e-05
0.0032 0 3.11176e-06 -3.67102e-05 3.68418e-05
0.003225 0 3.23116e-06 -3.74745e-05 3.76136e-05
0.00325 0 3.35517e-06 -3.82399e-05 3.83868e-05
0.003275 0 3.48401e-06 -3.90062e-05 3.91614e-05
0.0033 0 3.61787e-06 -3.97731e-05 3.99373e-05
0.003325 0 3.75696e-06 -4.05405e-05 4.07142e-05
0.00335 0 3.90144e-06 -4.13082e-05 4.14921e-05
0.003375 0 4.0515e-06 -4.2076e-05 4.22707e-05
0.0034 0 4.20731e-06 -4.28437e-05 4.30498e-05
0.003425 0 4.36899e-06 -4.36111e-05 4.38294e-05
0.00345 0 4.53669e-06 -4.43779e-05 4.46091e-05
0.003475 0 4.7105e-06 -4.51438e-05 4.53889e-05
0.0035 0 4.8905e-06 -4.59088e-05 4.61685e-05
0.003525 0 5.07672e-06 -4.66724e-05 4.69477e-05
0.00355 0 5.26918e-06 -4.74344e-05 4.77262e-05
0.003575 0 5.46784e-06 -4.81947e-05 4.85039e-05
0.0036 0 5.67262e-06 -4.89529e-05 4.92805e-05
0.003625 0 5.8834e-06 -4.97087e-05 5.00557e-05
0.00365 0 6.10001e-06 -5.0462e-05 5.08294e-05
0.003675 0 6.32224e-06 -5.12125e-05 5.16013e-05
0.0037 0 6.54982e-06 -5.196e-05 5.23711e-05
0.003725 0 6.78246e-06 -5.27041e-05 5.31387e-05
0.00375 0 7.01982e-06 -5.34448e-05 5.39039e-05
0.003775 0 7.26151e-06 -5.41819e-05 5.46663e-05
0.0038 0 7.50713e-06 -5.49152e-05 5.54259e-05
0.003825 0 7.75626e-06 -5.56445e-05 5.61825e-05
0.00385 0 8.00845e-06 -5.63699e-05 5.69359e-05
0.003875 0 8.26326e-06 -5.70912e-05 5.76861e-05
0.0039 0 8.52027e-06 -5.78083e-05 5.84328e-05
0.003925 0 8.77907e-06 -5.85214e-05 5.91762e-05
0.00395 0 9.03929e-06 -5.92303e-05 5.99161e-05
0.003975 0 9.30061e-06 -5.99352e-05 6.06526e-05
0.004 0 9.56278e-06 -6.06362e-05 6.13856e-05
0.004025 0 9.82564e-06 -6.13333e-05 6.21154e-05
0.00405 0 1.00891e-05 -6.20267e-05 6.28419e-05
0.004075 0 1.03532e-05 -6.27164e-05 6.35652e-05
0.0041 0 1.06182e-05 -6.34027e-05 6.42856e-05
0.004125 0 1.08842e-05 -6.40854e-05 6.50032e-05
0.00415 0 1.11517e-05 -6.47649e-05 6.5718e-05
0.004175 0 1.14214e-05 -6.54409e-05 6.64301e-05
0.0042 0 1.16939e-05 -6.61135e-05 6.71398e-05
0.004225 0 1.19701e-05 -6.67826e-05 6.78469e-05
0.00425 0 1.22511e-05 -6.74478e-05 6.85514e-05
0.004275 0 1.2538e-05 -6.81089e-05 6.92533e-05
0.0043 0 1.28322e-05 -6.87653e-05 6.99523e-05
0.004325 0 1.31351e-05 -6.94164e-05 7.06482e-05
0.00435 0 1.34483e-05 -7.00613e-05 7.13403e-05
0.004375 0 1.37735e-05 -7.0699e-05 7.20282e-05
0.0044 0 1.41124e-05 -7.13284e-05 7.27111e-05
0.004425 0 1.44667e-05 -7.19481e-05 7.33881e-05
0.00445 0 1.48384e-05 -7.25565e-05 7.40583e-05
0.004475 0 1.52291e-05 -7.31519e-05 7.47203e-05
0.0045 0 1.56408e-05 -7.37323e-05 7.53729e-05
0.004525 0 1.6075e-05 -7.42956e-05 7.60147e-05
0.00455 0 1.65334e-05 -7.48397e-05 7.66442e-05
0.004575 0 1.70176e-05 -7.53622e-05 7.72597e-05
0.0046 0 1.75289e-05 -7.58609e-05 7.78597e-05
0.004625 0 1.80686e-05 -7.63331e-05 7.84425e-05
0.00465 0 1.86377e-05 -7.67766e-05 7.90064e-05
0.004675 0 1.92371e-05 -7.7189e-05 7.955e-05
0.0047 0 1.98673e-05 -7.75679e-05 8.00718e-05
0.004725 0 2.05286e-05 -7.79112e-05 8.05703e-05
0.00475 0 2.12213e-05 -7.82168e-05 8.10445e-05
0.004775 0 2.1945e-05 -7.84828e-05 8.14932e-05
0.0048 0 2.26994e-05 -7.87075e-05 8.19155e-05
0.004825 0 2.34838e-05 -7.88895e-05 8.23106e-05
0.00485 0 2.42972e-05 -7.90273e-05 8.26782e-05
0.004875 0 2.51385e-05 -7.91201e-05 8.30176e-05
0.0049 0 2.6006e-05 -7.91668e-05 8.33289e-05
0.004925 0 2.68983e-05 -7.9167e-05 8.36118e-05
0.00495 0 2.78134e-05 -7.91202e-05 8.38665e-05
0.004975 0 2.87492e-05 -7.90262e-05 8.40931e-05
0.005 0 2.97036e-05 -7.8885e-05 8.42921e-05
0.005025 0 3.06743e-05 -7.86969e-05 8.44637e-05
0.00505 0 3.16588e-05 -7.84623e-05 8.46085e-05
0.005075 0 3.26547e-05 -7.81815e-05 8.47271e-05
0.0051 0 3.36595e-05 -7.78554e-05 8.482e-05
0.005125 0 3.46706e-05 -7.74848e-05 8.48878e-05
0.00515 0 3.56856e-05 -7.70705e-05 8.49313e-05
0.005175 0 3.6702e-05 -7.66137e-05 8.49511e-05
0.0052 0 3.77175e-05 -7.61155e-05 8.49481e-05
0.005225 0 3.87298e-05 -7.55772e-05 8.4923e-05
0.00525 0 3.97369e-05 -7.50002e-05 8.48767e-05
0.005275 0 4.07367e-05 -7.43858e-05 8.48099e-05
0.0053 0 4.17274e-05 -7.37355e-05 8.47237e-05
0.005325 0 4.27074e-05 -7.3051e-05 8.46189e-05
0.00535 0 4.36752e-05 -7.23337e-05 8.44967e-05
0.005375 0 4.46296e-05 -7.15853e-05 8.43579e-05
0.0054 0 4.55696e-05 -7.08075e-05 8.42038e-05
0.005425 0 4.64941e-05 -7.00019e-05 8.40356e-05
0.00545 0 4.74028e-05 -6.91703e-05 8.38543e-05
0.005475 0 4.8295e-05 -6.83142e-05 8.36615e-05
0.0055 0 4.91706e-05 -6.74354e-05 8.34583e-05
0.005525 0 5.00296e-05 -6.65355e-05 8.32463e-05
0.00555 0 5.08722e-05 -6.56162e-05 8.30269e-05
0.005575 0 5.16987e-05 -6.46789e-05 8.28017e-05
0.0056 0 5.25097e-05 -6.37253e-05 8.25723e-05
0.005625 0 5.33059e-05 -6.27568e-05 8.23404e-05
0.00565 0 5.40883e-05 -6.17748e-05 8.21077e-05
0.005675 0 5.48579e-05 -6.07808e-05 8.18761e-05
0.0057 0 5.5616e-05 -5.9776e-05 8.16474e-05
0.005725 0 5.63638e-05 -5.87616e-05 8.14236e-05
0.00575 0 5.71029e-05 -5.77388e-05 8.12066e-05
0.005775 0 5.78347e-05 -5.67087e-05 8.09983e-05
0.0058 0 5.85611e-05 -5.56722e-05 8.08009e-05
0.005825 0 5.92836e-05 -5.46303e-05 8.06165e-05
0.00585 0 6.00042e-05 -5.35838e-05 8.04471e-05
0.005875 0 6.07247e-05 -5.25335e-05 8.02948e-05
0.0059 0 6.1447e-05 -5.148e-05 8.01618e-05
0.005925 0 6.2173e-05 -5.04238e-05 8.00503e-05
0.00595 0 6.29047e-05 -4.93655e-05 7.99622e-05
0.005975 0 6.3644e-05 -4.83054e-05 7.98998e-05
0.006 0 6.43928e-05 -4.72439e-05 7.9865e-05
0.006025 0 6.5153e-05 -4.61812e-05 7.986e-05
0.00605 0 6.59264e-05 -4.51174e-05 7.98866e-05
0.006075 0 6.67148e-05 -4.40525e-05 7.99468e-05
0.0061 0 6.752e-05 -4.29867e-05 8.00425e-05
0.006125 0 6.83434e-05 -4.19197e-05 8.01753e-05
0.00615 0 6.91867e-05 -4.08515e-05 8.0347e-05
0.006175 0 7.00513e-05 -3.97818e-05 8.05591e-05
0.0062 0 7.09385e-05 -3.87103e-05 8.08131e-05
0.006225 0 7.18494e-05 -3.76367e-05 8.11102e-05
0.00625 0 7.27852e-05 -3.65606e-05 8.14516e-05
0.006275 0 7.37467e-05 -3.54816e-05 8.18383e-05
0.0063 0 7.47347e-05 -3.43993e-05 8.22714e-05
0.006325 0 7.57498e-05 -3.3313e-05 8.27514e-05
0.00635 0 7.67926e-05 -3.22223e-05 8.32789e-05
0.006375 0 7.78633e-05 -3.11266e-05 8.38544e-05
0.0064 0 7.89622e-05 -3.00254e-05 8.44781e-05
0.006425 0 8.00893e-05 -2.8918e-05 8.51502e-05
0.00645 0 8.12445e-05 -2.78038e-05 8.58704e-05
0.006475 0 8.24275e-05 -2.66823e-05 8.66386e-05
0.0065 0 8.3638e-05 -2.55529e-05 8.74543e-05
0.006525 0 8.48753e-05 -2.44149e-05 8.83171e-05
0.00655 0 8.61389e-05 -2.32679e-05 8.92261e-05
0.006575 0 8.74279e-05 -2.21111e-05 9.01806e-05
0.0066 0 8.87414e-05 -2.09441e-05 9.11795e-05
0.006625 0 9.00784e-05 -1.97663e-05 9.22216e-05
0.00665 0 9.14378e-05 -1.85773e-05 9.33059e-05
0.006675 0 9.28182e-05 -1.73764e-05 9.44308e-05
0.0067 0 9.42184e-05 -1.61634e-05 9.55948e-05
0.006725 0 9.56369e-05 -1.49376e-05 9.67964e-05
0.00675 0 9.70721e-05 -1.36987e-05 9.80339e-05
0.006775 0 9.85224e-05 -1.24463e-05 9.93055e-05
0.0068 0 9.99861e-05 -1.11801e-05 0.000100609
0.006825 0 0.000101461 -9.89964e-06 0.000101943
0.00685 0 0.000102946 -8.60471e-06 0.000103305
0.006875 0 0.000104439 -7.29501e-06 0.000104693
0.0069 0 0.000105937 -5.9703e-06 0.000106105
0.006925 0 0.000107438 -4.63039e-06 0.000107538
0.00695 0 0.000108941 -3.2751e-06 0.00010899
0.006975 0 0.000110442 -1.90433e-06 0.000110459
0.007 0 0.00011194 -5.17982e-07 0.000111941
0.007025 0 0.000113432 8.83956e-07 0.000113435
0.00705 0 0.000114915 2.30146e-06 0.000114938
0.007075 0 0.000116386 3.73444e-06 0.000116446
0.0071 0 0.000117843 5.18275e-06 0.000117957
0.007125 0 0.000119282 6.64615e-06 0.000119467
0.00715 0 0.000120701 8.12434e-06 0.000120975
0.007175 0 0.000122097 9.61692e-06 0.000122475
0.0072 0 0.000123466 1.11234e-05 0.000123966
0.007225 0 0.000124805 1.26432e-05 0.000125444
0.00725 0 0.000126111 1.41756e-05 0.000126905
0.007275 0 0.00012738 1.57199e-05 0.000128346
0.0073 0 0.000128608 1.7275e-05 0.000129763
0.007325 0 0.000129794 1.88399e-05 0.000131154
0.00735 0 0.000130932 2.04135e-05 0.000132513
0.007375 0 0.000132019 2.19945e-05 0.000133839
0.0074 0 0.000133053 2.35813e-05 0.000135126
0.007425 0 0.000134029 2.51725e-05 0.000136372
0.00745 0 0.000134945 2.67664e-05 0.000137574
0.007475 0 0.000135797 2.83611e-05 0.000138727
0.0075 0 0.000136582 2.99548e-05 0.000139828
0.007525 0 0.000137298 3.15454e-05 0.000140875
0.00755 0 0.000137942 3.31308e-05 0.000141864
0.007575 0 0.000138511 3.47087e-05 0.000142793
0.0076 0 0.000139003 3.6277e-05 0.000143659
0.007625 0 0.000139417 3.78333e-05 0.000144459
0.00765 0 0.00013975 3.93753e-05 0.000145191
0.007675 0 0.000140002 4.09005e-05 0.000145854
0.0077 0 0.00014017 4.24065e-05 0.000146445
0.007725 0 0.000140256 4.38911e-05 0.000146963
0.00775 0 0.000140257 4.53519e-05 0.000147407
0.007775 0 0.000140174 4.67865e-05 0.000147776
0.0078 0 0.000140007 4.81929e-05 0.000148069
0.007825 0 0.000139756 4.95688e-05 0.000148287
0.00785 0 0.000139423 5.09122e-05 0.000148428
0.007875 0 0.000139009 5.22213e-05 0.000148494
0.0079 0 0.000138514 5.34942e-05 0.000148485
0.007925 0 0.00013794 5.47294e-05 0.000148401
0.00795 0 0.00013729 5.59254e-05 0.000148244
0.007975 0 0.000136565 5.70807e-05 0.000148015
0.008 0 0.000135768 5.81944e-05 0.000147715
0.008025 0 0.000134901 5.92654e-05 0.000147346
0.00805 0 0.000133967 6.02928e-05 0.000146909
0.008075 0 0.000132968 6.12761e-05 0.000146408
0.0081 0 0.000131908 6.22147e-05 0.000145843
0.008125 0 0.000130788 6.31084e-05 0.000145218
0.00815 0 0.000129613 6.3957e-05 0.000144534
0.008175 0 0.000128384 6.47605e-05 0.000143793
0.0082 0 0.000127106 6.55189e-05 0.000142999
0.008225 0 0.00012578 6.62327e-05 0.000142153
0.00825 0 0.000124411 6.69021e-05 0.000141258
0.008275 0 0.000122999 6.75276e-05 0.000140317
0.0083 0 0.00012155 6.811e-05 0.000139332
0.008325 0 0.000120064 6.86498e-05 0.000138305
0.00835 0 0.000118545 6.91479e-05 0.000137239
0.008375 0 0.000116996 6.96051e-05 0.000136135
0.0084 0 0.000115418 7.00222e-05 0.000134998
0.008425 0 0.000113814 7.04003e-05 0.000133827
0.00845 0 0.000112186 7.07404e-05 0.000132627
0.008475 0 0.000110536 7.10433e-05 0.000131398
0.0085 0 0.000108866 7.13103e-05 0.000130142
0.008525 0 0.000107178 7.15424e-05 0.000128862
0.00855 0 0.000105474 7.17406e-05 0.00012756
0.008575 0 0.000103755 7.19059e-05 0.000126236
0.0086 0 0.000102023 7.20395e-05 0.000124893
0.008625 0 0.000100279 7.21424e-05 0.000123533
0.00865 0 9.85236e-05 7.22157e-05 0.000122156
0.008675 0 9.6759e-05 7.22603e-05 0.000120764
0.0087 0 9.49859e-05 7.22772e-05 0.000119358
0.008725 0 9.32052e-05 7.22675e-05 0.00011794
0.00875 0 9.14179e-05 7.2232e-05 0.00011651
0.008775 0 8.96246e-05 7.21717e-05 0.000115071
0.0088 0 8.78261e-05 7.20875e-05 0.000113622
0.008825 0 8.6023e-05 7.19803e-05 0.000112166
0.00885 0 8.42159e-05 7.18507e-05 0.000110702
0.008875 0 8.24053e-05 7.16998e-05 0.000109231
0.0089 0 8.05915e-05 7.15281e-05 0.000107756
0.008925 0 7.87751e-05 7.13364e-05 0.000106275
0.00895 0 7.69562e-05 7.11255e-05 0.000104791
0.008975 0 7.51352e-05 7.08959e-05 0.000103303
0.009 0 7.33123e-05 7.06483e-05 0.000101813
0.009025 0 7.14878e-05 7.03832e-05 0.000100321
0.00905 0 6.96617e-05 7.01012e-05 9.88278e-05
0.009075 0 6.78343e-05 6.98028e-05 9.73341e-05
0.0091 0 6.60057e-05 6.94884e-05 9.58404e-05
0.009125 0 6.41759e-05 6.91586e-05 9.43476e-05
0.00915 0 6.2345e-05 6.88138e-05 9.2856e-05
0.009175 0 6.05132e-05 6.84542e-05 9.13665e-05
0.0092 0 5.86806e-05 6.80803e-05 8.98796e-05
0.009225 0 5.68471e-05 6.76924e-05 8.8396e-05
0.00925 0 5.50129e-05 6.72907e-05 8.69164e-05
0.009275 0 5.31781e-05 6.68756e-05 8.54415e-05
0.0093 0 5.13427e-05 6.64473e-05 8.39721e-05
0.009325 0 4.95069e-05 6.60061e-05 8.2509e-05
0.00935 0 4.76707e-05 6.5552e-05 8.10528e-05
0.009375 0 4.58344e-05 6.50853e-05 7.96046e-05
0.0094 0 4.39981e-05 6.46062e-05 7.81651e-05
0.009425 0 4.21619e-05 6.41147e-05 7.67354e-05
0.00945 0 4.03261e-05 6.36111e-05 7.53164e-05
0.009475 0 3.84908e-05 6.30955e-05 7.39093e-05
0.0095 0 3.66564e-05 6.25679e-05 7.25151e-05
0.009525 0 3.48232e-05 6.20285e-05 7.1135e-05
0.00955 0 3.29914e-05 6.14774e-05 6.97703e-05
0.009575 0 3.11613e-05 6.09146e-05 6.84223e-05
0.0096 0 2.93334e-05 6.03402e-05 6.70924e-05
0.009625 0 2.7508e-05 5.97544e-05 6.57821e-05
0.00965 0 2.56856e-05 5.91572e-05 6.44928e-05
0.009675 0 2.38666e-05 5.85487e-05 6.32263e-05
0.0097 0 2.20516e-05 5.79289e-05 6.19841e-05
0.009725 0 2.02409e-05 5.72981e-05 6.07681e-05
0.00975 0 1.84353e-05 5.66563e-05 5.95801e-05
0.009775 0 1.66352e-05 5.60035e-05 5.8422e-05
0.0098 0 1.48413e-05 5.534e-05 5.72956e-05
0.009825 0 1.30541e-05 5.46659e-05 5.6203e-05
0.00985 0 1.12745e-05 5.39814e-05 5.51462e-05
0.009875 0 9.50301e-06 5.32866e-05 5.41273e-05
0.0099 0 7.7404e-06 5.25816e-05 5.31483e-05
0.009925 0 5.9874e-06 5.18669e-05 5.22113e-05
0.00995 0 4.2448e-06 5.11425e-05 5.13183e-05
0.009975 0 2.51336e-06 5.04087e-05 5.04713e-05
0.01 0 7.93908e-07 4.96658e-05 4.96721e-05
0.010025 0 -9.12733e-07 4.89142e-05 4.89227e-05
0.01005 0 -2.60571e-06 4.81541e-05 4.82245e-05
0.010075 0 -4.28417e-06 4.73859e-05 4.75792e-05
0.0101 0 -5.94721e-06 4.66101e-05 4.6988e-05
0.010125 0 -7.59395e-06 4.5827e-05 4.6452e-05
0.01015 0 -9.22347e-06 4.50371e-05 4.59719e-05
0.010175 0 -1.08349e-05 4.4241e-05 4.55484e-05
0.0102 0 -1.24272e-05 4.3439e-05 4.51816e-05
0.010225 0 -1.39995e-05 4.26318e-05 4.48715e-05
0.01025 0 -1.55509e-05 4.18199e-05 4.46176e-05
0.010275 0 -1.70804e-05 4.10039e-05 4.44191e-05
0.0103 0 -1.8587e-05 4.01845e-05 4.42749e-05
0.010325 0 -2.00699e-05 3.93623e-05 4.41836e-05
0.01035 0 -2.1528e-05 3.8538e-05 4.41433e-05
0.010375 0 -2.29605e-05 3.77123e-05 4.4152e-05
0.0104 0 -2.43663e-05 3.6886e-05 4.42073e-05
0.010425 0 -2.57445e-05 3.60597e-05 4.43067e-05
0.01045 0 -2.70943e-05 3.52343e-05 4.44473e-05
0.010475 0 -2.84147e-05 3.44106e-05 4.4626e-05
0.0105 0 -2.97048e-05 3.35892e-05 4.48399e-05
0.010525 0 -3.09637e-05 3.27712e-05 4.50855e-05
0.01055 0 -3.21906e-05 3.19572e-05 4.53596e-05
0.010575 0 -3.33846e-05 3.1148e-05 4.56588e-05
0.0106 0 -3.45448e-05 3.03446e-05 4.59798e-05
0.010625 0 -3.56705e-05 2.95477e-05 4.6319e-05
0.01065 0 -3.67609e-05 2.87581e-05 4.66732e-05
0.010675 0 -3.78152e-05 2.79766e-05 4.70391e-05
0.0107 0 -3.88326e-05 2.72041e-05 4.74134e-05
0.010725 0 -3.98126e-05 2.64412e-05 4.77931e-05
0.01075 0 -4.07544e-05 2.56887e-05 4.8175e-05
0.010775 0 -4.16573e-05 2.49474e-05 4.85562e-05
0.0108 0 -4.25209e-05 2.4218e-05 4.8934e-05
0.010825 0 -4.33444e-05 2.35012e-05 4.93056e-05
0.01085 0 -4.41274e-05 2.27975e-05 4.96684e-05
0.010875 0 -4.48693e-05 2.21077e-05 5.00201e-05
0.0109 0 -4.55698e-05 2.14323e-05 5.03582e-05
0.010925 0 -4.62284e-05 2.07718e-05 5.06807e-05
0.01095 0 -4.68447e-05 2.01268e-05 5.09854e-05
0.010975 0 -4.74184e-05 1.94978e-05 5.12705e-05
0.011 0 -4.79492e-05 1.8885e-05 5.15342e-05
0.011025 0 -4.84369e-05 1.82891e-05 5.17748e-05
0.01105 0 -4.88813e-05 1.77102e-05 5.19907e-05
0.011075 0 -4.92822e-05 1.71488e-05 5.21806e-05
0.0111 0 -4.96396e-05 1.6605e-05 5.23433e-05
0.011125 0 -4.99534e-05 1.60791e-05 5.24774e-05
0.01115 0 -5.02236e-05 1.55713e-05 5.2582e-05
0.011175 0 -5.04502e-05 1.50817e-05 5.26562e-05
0.0112 0 -5.06333e-05 1.46104e-05 5.26991e-05
0.011225 0 -5.07731e-05 1.41576e-05 5.271e-05
0.01125 0 -5.08698e-05 1.37231e-05 5.26884e-05
0.011275 0 -5.09236e-05 1.33071e-05 5.26336e-05
0.0113 0 -5.09349e-05 1.29095e-05 5.25454e-05
0.011325 0 -5.09039e-05 1.25302e-05 5.24234e-05
0.01135 0 -5.08311e-05 1.21692e-05 5.22675e-05
0.011375 0 -5.07169e-05 1.18263e-05 5.20775e-05
0.0114 0 -5.05618e-05 1.15014e-05 5.18534e-05
0.011425 0 -5.03663e-05 1.11943e-05 5.15953e-05
0.01145 0 -5.01311e-05 1.09049e-05 5.13034e-05
0.011475 0 -4.98567e-05 1.06328e-05 5.0978e-05
0.0115 0 -4.95439e-05 1.0378e-05 5.06192e-05
0.011525 0 -4.91934e-05 1.01402e-05 5.02276e-05
0.01155 0 -4.88059e-05 9.91916e-06 4.98037e-05
0.011575 0 -4.83823e-05 9.71457e-06 4.9348e-05
0.0116 0 -4.79235e-05 9.5262e-06 4.88611e-05
0.011625 0 -4.74302e-05 9.35378e-06 4.83438e-05
0.01165 0 -4.69035e-05 9.19702e-06 4.77967e-05
0.011675 0 -4.63444e-05 9.05565e-06 4.72208e-05
0.0117 0 -4.57538e-05 8.92937e-06 4.66169e-05
0.011725 0 -4.51327e-05 8.81789e-06 4.59861e-05
0.01175 0 -4.44824e-05 8.72092e-06 4.53292e-05
0.011775 0 -4.38038e-05 8.63817e-06 4.46474e-05
0.0118 0 -4.30982e-05 8.56933e-06 4.39419e-05
0.011825 0 -4.23666e-05 8.51412e-06 4.32137e-05
0.01185 0 -4.16104e-05 8.47222e-06 4.24641e-05
0.011875 0 -4.08306e-05 8.44336e-06 4.16945e-05
0.0119 0 -4.00286e-05 8.42722e-06 4.09061e-05
0.011925 0 -3.92056e-05 8.42353e-06 4.01003e-05
0.01195 0 -3.83629e-05 8.43197e-06 3.92786e-05
0.011975 0 -3.75017e-05 8.45226e-06 3.84424e-05
0.012 0 -3.66234e-05 8.4841e-06 3.75933e-05
0.012025 0 -3.57294e-05 8.5272e-06 3.67328e-05
0.01205 0 -3.48208e-05 8.58125e-06 3.58626e-05
0.012075 0 -3.38991e-05 8.64596e-06 3.49843e-05
0.0121 0 -3.29656e-05 8.72102e-06 3.40997e-05
0.012125 0 -3.20217e-05 8.80614e-06 3.32105e-05
0.01215 0 -3.10686e-05 8.901e-06 3.23185e-05
0.012175 0 -3.01077e-05 9.0053e-06 3.14256e-05
0.0122 0 -2.91404e-05 9.11872e-06 3.05339e-05
0.012225 0 -2.8168e-05 9.24093e-06 2.96451e-05
0.01225 0 -2.71919e-05 9.37162e-06 2.87615e-05
0.012275 0 -2.62132e-05 9.51044e-06 2.78851e-05
0.0123 0 -2.52333e-05 9.65706e-06 2.70181e-05
0.012325 0 -2.42536e-05 9.81113e-06 2.61628e-05
0.01235 0 -2.32752e-05 9.97229e-06 2.53215e-05
0.012375 0 -2.22994e-05 1.01402e-05 2.44966e-05
0.0124 0 -2.13274e-05 1.03144e-05 2.36906e-05
0.012425 0 -2.03604e-05 1.04946e-05 2.2906e-05
0.01245 0 -1.93997e-05 1.06803e-05 2.21454e-05
0.012475 0 -1.84463e-05 1.08712e-05 2.14114e-05
0.0125 0 -1.75014e-05 1.10668e-05 2.07068e-05
0.012525 0 -1.6566e-05 1.12666e-05 2.00342e-05
0.01255 0 -1.56413e-05 1.14703e-05 1.93964e-05
0.012575 0 -1.47283e-05 1.16774e-05 1.87958e-05
0.0126 0 -1.38279e-05 1.18873e-05 1.82351e-05
0.012625 0 -1.29411e-05 1.20996e-05 1.77164e-05
0.01265 0 -1.20689e-05 1.23137e-05 1.7242e-05
0.012675 0 -1.12122e-05 1.25292e-05 1.68135e-05
0.0127 0 -1.03718e-05 1.27454e-05 1.64323e-05
0.012725 0 -9.54848e-06 1.29619e-05 1.60992e-05
0.01275 0 -8.74313e-06 1.3178e-05 1.58146e-05
0.012775 0 -7.95646e-06 1.33931e-05 1.55782e-05
0.0128 0 -7.1892e-06 1.36066e-05 1.53891e-05
0.012825 0 -6.44202e-06 1.38179e-05 1.52458e-05
0.01285 0 -5.71555e-06 1.40264e-05 1.51462e-05
0.012875 0 -5.01042e-06 1.42313e-05 1.50876e-05
0.0129 0 -4.32719e-06 1.4432e-05 1.50668e-05
0.012925 0 -3.66639e-06 1.46279e-05 1.50803e-05
0.01295 0 -3.02852e-06 1.48181e-05 1.51244e-05
0.012975 0 -2.41405e-06 1.50019e-05 1.51949e-05
0.013 0 -1.8234e-06 1.51788e-05 1.52879e-05
0.013025 0 -1.25697e-06 1.53477e-05 1.53991e-05
0.01305 0 -7.15114e-07 1.55082e-05 1.55246e-05
0.013075 0 -1.98165e-07 1.56592e-05 1.56605e-05
0.0131 0 2.93584e-07 1.58002e-05 1.58029e-05
0.013125 0 7.59873e-07 1.59303e-05 1.59484e-05
0.01315 0 1.20047e-06 1.60486e-05 1.60935e-05
0.013175 0 1.61518e-06 1.61545e-05 1.62351e-05
0.0132 0 2.00383e-06 1.62472e-05 1.63703e-05
0.013225 0 2.3663e-06 1.63257e-05 1.64963e-05
0.01325 0 2.70247e-06 1.63894e-05 1.66108e-05
0.013275 0 3.01226e-06 1.64375e-05 1.67113e-05
0.0133 0 3.29565e-06 1.64692e-05 1.67957e-05
0.013325 0 3.5526e-06 1.64837e-05 1.68622e-05
0.01335 0 3.78314e-06 1.64802e-05 1.69089e-05
0.013375 0 3.98732e-06 1.64581e-05 1.69342e-05
0.0134 0 4.16521e-06 1.64165e-05 1.69367e-05
0.013425 0 4.31692e-06 1.63548e-05 1.6915e-05
0.01345 0 4.44258e-06 1.62723e-05 1.68678e-05
0.013475 0 4.54236e-06 1.61682e-05 1.67942e-05
0.0135 0 4.61646e-06 1.6042e-05 1.6693e-05
0.013525 0 4.6651e-06 1.5893e-05 1.65635e-05
0.01355 0 4.68854e-06 1.57206e-05 1.64049e-05
0.013575 0 4.68708e-06 1.55243e-05 1.62164e-05
0.0136 0 4.66101e-06 1.53035e-05 1.59976e-05
0.013625 0 4.6107e-06 1.50577e-05 1.57478e-05
0.01365 0 4.53651e-06 1.47865e-05 1.54668e-05
0.013675 0 4.43886e-06 1.44894e-05 1.51541e-05
0.0137 0 4.31818e-06 1.41661e-05 1.48096e-05
0.013725 0 4.17493e-06 1.38162e-05 1.44332e-05
0.01375 0 4.0096e-06 1.34393e-05 1.40247e-05
0.013775 0 3.8227e-06 1.30353e-05 1.35843e-05
0.0138 0 3.61479e-06 1.26039e-05 1.3112e-05
0.013825 0 3.38643e-06 1.2145e-05 1.26082e-05
0.01385 0 3.1382e-06 1.16583e-05 1.20733e-05
0.013875 0 2.87074e-06 1.11438e-05 1.15076e-05
0.0139 0 2.58465e-06 1.06015e-05 1.09121e-05
0.013925 0 2.28062e-06 1.00314e-05 1.02874e-05
0.01395 0 1.95929e-06 9.43352e-06 9.63484e-06
0.013975 0 1.62136e-06 8.80793e-06 8.95592e-06
0.014 0 1.26754e-06 8.15479e-06 8.25271e-06
0.014025 0 8.98518e-07 7.47426e-06 7.52808e-06
0.01405 0 5.1503e-07 6.76658e-06 6.78615e-06
0.014075 0 1.17799e-07 6.032e-06 6.03315e-06
0.0141 0 -2.92444e-07 5.27083e-06 5.27893e-06
0.014125 0 -7.14966e-07 4.48339e-06 4.54004e-06
0.01415 0 -1.14903e-06 3.67008e-06 3.84575e-06
0.014175 0 -1.59392e-06 2.8313e-06 3.24913e-06
0.0142 0 -2.04889e-06 1.9675e-06 2.8406e-06
0.014225 0 -2.51323e-06 1.07917e-06 2.73513e-06
0.01425 0 -2.98623e-06 1.66806e-07 2.99088e-06
0.014275 -0 -3.46719e-06 -7.69042e-07 3.55146e-06
0.0143 -0 -3.95545e-06 -1.72781e-06 4.31635e-06
0.014325 -0 -4.45033e-06 -2.7089e-06 5.20995e-06
0.01435 -0 -4.9512e-06 -3.71169e-06 6.18797e-06
0.014375 -0 -5.45743e-06 -4.73554e-06 7.22558e-06
0.0144 -0 -5.96843e-06 -5.7798e-06 8.30833e-06
0.014425 -0 -6.48362e-06 -6.84378e-06 9.42734e-06
0.01445 -0 -7.00244e-06 -7.92679e-06 1.05768e-05
0.014475 -0 -7.52439e-06 -9.02812e-06 1.17526e-05
0.0145 -0 -8.04895e-06 -1.0147e-05 1.29517e-05
0.014525 -0 -8.57567e-06 -1.12828e-05 1.41719e-05
0.01455 -0 -9.1041e-06 -1.24347e-05 1.54112e-05
0.014575 -0 -9.63384e-06 -1.36019e-05 1.6668e-05
0.0146 -0 -1.01645e-05 -1.47837e-05 1.79408e-05
0.014625 -0 -1.06957e-05 -1.59792e-05 1.92285e-05
0.01465 -0 -1.12272e-05 -1.71879e-05 2.05298e-05
0.014675 -0 -1.17586e-05 -1.84087e-05 2.18437e-05
0.0147 -0 -1.22897e-05 -1.96411e-05 2.31692e-05
0.014725 -0 -1.28203e-05 -2.08841e-05 2.45052e-05
0.01475 -0 -1.33502e-05 -2.2137e-05 2.5851e-05
0.014775 -0 -1.3879e-05 -2.3399e-05 2.72055e-05
0.0148 -0 -1.44068e-05 -2.46693e-05 2.8568e-05
0.014825 -0 -1.49333e-05 -2.59471e-05 2.99376e-05
0.01485 -0 -1.54584e-05 -2.72317e-05 3.13134e-05
0.014875 -0 -1.5982e-05 -2.85222e-05 3.26947e-05
0.0149 -0 -1.6504e-05 -2.98179e-05 3.40806e-05
0.014925 -0 -1.70242e-05 -3.1118e-05 3.54704e-05
0.01495 -0 -1.75427e-05 -3.24216e-05 3.68634e-05
0.014975 -0 -1.80594e-05 -3.37282e-05 3.82587e-05
0.015 -0 -1.85741e-05 -3.50367e-05 3.96557e-05
0.015025 -0 -1.90869e-05 -3.63466e-05 4.10535e-05
0.01505 -0 -1.95977e-05 -3.7657e-05 4.24514e-05
0.015075 -0 -2.01065e-05 -3.89672e-05 4.38488e-05
0.0151 -0 -2.06132e-05 -4.02765e-05 4.52448e-05
0.015125 -0 -2.11176e-05 -4.1584e-05 4.66388e-05
0.01515 -0 -2.16198e-05 -4.2889e-05 4.80301e-05
0.015175 -0 -2.21197e-05 -4.41909e-05 4.94178e-05
0.0152 -0 -2.26173e-05 -4.54888e-05 5.08013e-05
0.015225 -0 -2.31124e-05 -4.67821e-05 5.21799e-05
0.01525 -0 -2.3605e-05 -4.807e-05 5.35529e-05
0.015275 -0 -2.4095e-05 -4.93517e-05 5.49196e-05
0.0153 -0 -2.45824e-05 -5.06267e-05 5.62793e-05
0.015325 -0 -2.5067e-05 -5.18942e-05 5.76312e-05
0.01535 -0 -2.55487e-05 -5.31534e-05 5.89747e-05
0.015375 -0 -2.60274e-05 -5.44037e-05 6.03091e-05
0.0154 -0 -2.6503e-05 -5.56444e-05 6.16337e-05
0.015425 -0 -2.69754e-05 -5.68749e-05 6.29478e-05
0.01545 -0 -2.74444e-05 -5.80943e-05 6.42507e-05
0.015475 -0 -2.79099e-05 -5.93022e-05 6.55417e-05
0.0155 -0 -2.83718e-05 -6.04977e-05 6.68201e-05
0.015525 -0 -2.88298e-05 -6.16803e-05 6.80853e-05
0.01555 -0 -2.92838e-05 -6.28492e-05 6.93366e-05
0.015575 -0 -2.97336e-05 -6.40039e-05 7.05733e-05
0.0156 -0 -3.01792e-05 -6.51437e-05 7.17947e-05
0.015625 -0 -3.06203e-05 -6.62679e-05 7.30002e-05
0.01565 -0 -3.10567e-05 -6.73759e-05 7.41891e-05
0.015675 -0 -3.14883e-05 -6.84671e-05 7.53608e-05
0.0157 -0 -3.19149e-05 -6.95409e-05 7.65147e-05
0.015725 -0 -3.23364e-05 -7.05966e-05 7.765e-05
0.01575 -0 -3.27527e-05 -7.16336e-05 7.87661e-05
0.015775 -0 -3.31635e-05 -7.26513e-05 7.98626e-05
0.0158 -0 -3.35688e-05 -7.36491e-05 8.09386e-05
0.015825 -0 -3.39685e-05 -7.46264e-05 8.19937e-05
0.01585 -0 -3.43624e-05 -7.55826e-05 8.30271e-05
0.015875 -0 -3.47505e-05 -7.65171e-05 8.40385e-05
0.0159 -0 -3.51326e-05 -7.74294e-05 8.50271e-05
0.015925 -0 -3.55088e-05 -7.83187e-05 8.59924e-05
0.01595 -0 -3.58791e-05 -7.91846e-05 8.69339e-05
0.015975 -0 -3.62434e-05 -8.00264e-05 8.78511e-05