/*--------------------------------*- C++ -*----------------------------------*\
| =========                 |                                                 |
| \\      /  F ield         | foam-extend: Open Source CFD                    |
|  \\    /   O peration     | Version:     4.1                                |
|   \\  /    A nd           | Web:         http://www.foam-extend.org         |
|    \\/     M anipulation  |                                                 |
\*---------------------------------------------------------------------------*/
FoamFile
{
    version     2.0;
    format      binary;
    class       regIOobject;
    location    "0.013/uniform";
    object      profilingInfo;
}
// * * * * * * * * * * * * * * * * * * * * * * * * * * * * * * * * * * * * * //

profilingInfo
(

    {
        id              28;
        parentId        27;
        description     "Foam::Time::writeObject - outputTime";
        calls           13;
        totalTime       0.09074;
        childTime       0;
        onStack         1;
    }

    {
        id              27;
        parentId        1;
        description     "Foam::Time::writeObject";
        calls           13;
        totalTime       0.090806;
        childTime       0.09074;
        onStack         1;
    }

    {
        id              1;
        description     "application::main";
        calls           1;
        totalTime       1819.9;
        childTime       568.294;
        onStack         1;
    }

    {
        id              24;
        parentId        1;
        description     "FO::displacement::execute";
        calls           519;
        totalTime       0.005739;
        childTime       0;
        onStack         0;
    }

    {
        id              3;
        parentId        2;
        description     "FO::displacement::start";
        calls           1;
        totalTime       3e-06;
        childTime       0;
        onStack         0;
    }

    {
        id              26;
        parentId        1;
        description     "FO::forces::execute";
        calls           519;
        totalTime       0.603955;
        childTime       0;
        onStack         0;
    }

    {
        id              5;
        parentId        2;
        description     "FO::forces::start";
        calls           1;
        totalTime       5e-05;
        childTime       0;
        onStack         0;
    }

    {
        id              25;
        parentId        1;
        description     "FO::solidForce::execute";
        calls           519;
        totalTime       0.018413;
        childTime       0;
        onStack         0;
    }

    {
        id              4;
        parentId        2;
        description     "FO::solidForce::start";
        calls           1;
        totalTime       4e-05;
        childTime       0;
        onStack         0;
    }

    {
        id              2;
        parentId        1;
        description     "functionObjectList::read";
        calls           1;
        totalTime       0.007921;
        childTime       9.3e-05;
        onStack         0;
    }

    {
        id              20;
        parentId        1;
        description     "fvMatrix::solve_D";
        calls           148492;
        totalTime       194.331;
        childTime       151.701;
        onStack         0;
    }

    {
        id              13;
        parentId        1;
        description     "fvMatrix::solve_U";
        calls           16846;
        totalTime       54.4369;
        childTime       45.8634;
        onStack         0;
    }

    {
        id              6;
        parentId        1;
        description     "fvMatrix::solve_cellMotionU";
        calls           5323;
        totalTime       29.417;
        childTime       26.8471;
        onStack         0;
    }

    {
        id              17;
        parentId        1;
        description     "fvMatrix::solve_p";
        calls           101076;
        totalTime       289.382;
        childTime       274.921;
        onStack         0;
    }

    {
        id              21;
        parentId        20;
        description     "lduMatrix::solver_Dx";
        calls           148492;
        totalTime       52.4286;
        childTime       0;
        onStack         0;
    }

    {
        id              22;
        parentId        20;
        description     "lduMatrix::solver_Dy";
        calls           148492;
        totalTime       50.9322;
        childTime       0;
        onStack         0;
    }

    {
        id              23;
        parentId        20;
        description     "lduMatrix::solver_Dz";
        calls           148492;
        totalTime       48.3399;
        childTime       0;
        onStack         0;
    }

    {
        id              14;
        parentId        13;
        description     "lduMatrix::solver_Ux";
        calls           16846;
        totalTime       15.7733;
        childTime       0;
        onStack         0;
    }

    {
        id              15;
        parentId        13;
        description     "lduMatrix::solver_Uy";
        calls           16846;
        totalTime       15.0677;
        childTime       0;
        onStack         0;
    }

    {
        id              16;
        parentId        13;
        description     "lduMatrix::solver_Uz";
        calls           16846;
        totalTime       15.0225;
        childTime       0;
        onStack         0;
    }

    {
        id              7;
        parentId        6;
        description     "lduMatrix::solver_cellMotionUx";
        calls           5323;
        totalTime       8.6664;
        childTime       0.051537;
        onStack         0;
    }

    {
        id              9;
        parentId        6;
        description     "lduMatrix::solver_cellMotionUy";
        calls           5323;
        totalTime       8.25888;
        childTime       0.037134;
        onStack         0;
    }

    {
        id              11;
        parentId        6;
        description     "lduMatrix::solver_cellMotionUz";
        calls           5323;
        totalTime       9.92184;
        childTime       0.043777;
        onStack         0;
    }

    {
        id              8;
        parentId        7;
        description     "lduMatrix::solver_coarsestLevelCorr";
        calls           5849;
        totalTime       0.051537;
        childTime       0;
        onStack         0;
    }

    {
        id              10;
        parentId        9;
        description     "lduMatrix::solver_coarsestLevelCorr";
        calls           5860;
        totalTime       0.037134;
        childTime       0;
        onStack         0;
    }

    {
        id              12;
        parentId        11;
        description     "lduMatrix::solver_coarsestLevelCorr";
        calls           7421;
        totalTime       0.043777;
        childTime       0;
        onStack         0;
    }

    {
        id              19;
        parentId        18;
        description     "lduMatrix::solver_coarsestLevelCorr";
        calls           224480;
        totalTime       1.97314;
        childTime       0;
        onStack         0;
    }

    {
        id              18;
        parentId        17;
        description     "lduMatrix::solver_p";
        calls           101076;
        totalTime       274.921;
        childTime       1.97314;
        onStack         0;
    }
);


// ************************************************************************* //
