/*--------------------------------*- C++ -*----------------------------------*\
| =========                 |                                                 |
| \\      /  F ield         | foam-extend: Open Source CFD                    |
|  \\    /   O peration     | Version:     4.1                                |
|   \\  /    A nd           | Web:         http://www.foam-extend.org         |
|    \\/     M anipulation  |                                                 |
\*---------------------------------------------------------------------------*/
FoamFile
{
    version     2.0;
    format      binary;
    class       regIOobject;
    location    "0.008/uniform";
    object      profilingInfo;
}
// * * * * * * * * * * * * * * * * * * * * * * * * * * * * * * * * * * * * * //

profilingInfo
(

    {
        id              28;
        parentId        27;
        description     "Foam::Time::writeObject - outputTime";
        calls           8;
        totalTime       0.054264;
        childTime       0;
        onStack         1;
    }

    {
        id              27;
        parentId        1;
        description     "Foam::Time::writeObject";
        calls           8;
        totalTime       0.054317;
        childTime       0.054264;
        onStack         1;
    }

    {
        id              1;
        description     "application::main";
        calls           1;
        totalTime       1095.14;
        childTime       343.235;
        onStack         1;
    }

    {
        id              24;
        parentId        1;
        description     "FO::displacement::execute";
        calls           319;
        totalTime       0.003344;
        childTime       0;
        onStack         0;
    }

    {
        id              3;
        parentId        2;
        description     "FO::displacement::start";
        calls           1;
        totalTime       3e-06;
        childTime       0;
        onStack         0;
    }

    {
        id              26;
        parentId        1;
        description     "FO::forces::execute";
        calls           319;
        totalTime       0.359918;
        childTime       0;
        onStack         0;
    }

    {
        id              5;
        parentId        2;
        description     "FO::forces::start";
        calls           1;
        totalTime       5e-05;
        childTime       0;
        onStack         0;
    }

    {
        id              25;
        parentId        1;
        description     "FO::solidForce::execute";
        calls           319;
        totalTime       0.010062;
        childTime       0;
        onStack         0;
    }

    {
        id              4;
        parentId        2;
        description     "FO::solidForce::start";
        calls           1;
        totalTime       4e-05;
        childTime       0;
        onStack         0;
    }

    {
        id              2;
        parentId        1;
        description     "functionObjectList::read";
        calls           1;
        totalTime       0.007921;
        childTime       9.3e-05;
        onStack         0;
    }

    {
        id              20;
        parentId        1;
        description     "fvMatrix::solve_D";
        calls           92421;
        totalTime       119.861;
        childTime       94.361;
        onStack         0;
    }

    {
        id              13;
        parentId        1;
        description     "fvMatrix::solve_U";
        calls           10332;
        totalTime       32.8853;
        childTime       27.6453;
        onStack         0;
    }

    {
        id              6;
        parentId        1;
        description     "fvMatrix::solve_cellMotionU";
        calls           3266;
        totalTime       17.4231;
        childTime       16.0512;
        onStack         0;
    }

    {
        id              17;
        parentId        1;
        description     "fvMatrix::solve_p";
        calls           61992;
        totalTime       172.63;
        childTime       164.102;
        onStack         0;
    }

    {
        id              21;
        parentId        20;
        description     "lduMatrix::solver_Dx";
        calls           92421;
        totalTime       32.6893;
        childTime       0;
        onStack         0;
    }

    {
        id              22;
        parentId        20;
        description     "lduMatrix::solver_Dy";
        calls           92421;
        totalTime       31.7811;
        childTime       0;
        onStack         0;
    }

    {
        id              23;
        parentId        20;
        description     "lduMatrix::solver_Dz";
        calls           92421;
        totalTime       29.8906;
        childTime       0;
        onStack         0;
    }

    {
        id              14;
        parentId        13;
        description     "lduMatrix::solver_Ux";
        calls           10332;
        totalTime       9.49821;
        childTime       0;
        onStack         0;
    }

    {
        id              15;
        parentId        13;
        description     "lduMatrix::solver_Uy";
        calls           10332;
        totalTime       9.08637;
        childTime       0;
        onStack         0;
    }

    {
        id              16;
        parentId        13;
        description     "lduMatrix::solver_Uz";
        calls           10332;
        totalTime       9.06077;
        childTime       0;
        onStack         0;
    }

    {
        id              7;
        parentId        6;
        description     "lduMatrix::solver_cellMotionUx";
        calls           3266;
        totalTime       5.23012;
        childTime       0.030961;
        onStack         0;
    }

    {
        id              9;
        parentId        6;
        description     "lduMatrix::solver_cellMotionUy";
        calls           3266;
        totalTime       4.95426;
        childTime       0.021529;
        onStack         0;
    }

    {
        id              11;
        parentId        6;
        description     "lduMatrix::solver_cellMotionUz";
        calls           3266;
        totalTime       5.86687;
        childTime       0.023627;
        onStack         0;
    }

    {
        id              8;
        parentId        7;
        description     "lduMatrix::solver_coarsestLevelCorr";
        calls           3592;
        totalTime       0.030961;
        childTime       0;
        onStack         0;
    }

    {
        id              10;
        parentId        9;
        description     "lduMatrix::solver_coarsestLevelCorr";
        calls           3603;
        totalTime       0.021529;
        childTime       0;
        onStack         0;
    }

    {
        id              12;
        parentId        11;
        description     "lduMatrix::solver_coarsestLevelCorr";
        calls           4572;
        totalTime       0.023627;
        childTime       0;
        onStack         0;
    }

    {
        id              19;
        parentId        18;
        description     "lduMatrix::solver_coarsestLevelCorr";
        calls           135867;
        totalTime       1.15337;
        childTime       0;
        onStack         0;
    }

    {
        id              18;
        parentId        17;
        description     "lduMatrix::solver_p";
        calls           61992;
        totalTime       164.102;
        childTime       1.15337;
        onStack         0;
    }
);


// ************************************************************************* //
