/*--------------------------------*- C++ -*----------------------------------*\
| =========                 |                                                 |
| \\      /  F ield         | foam-extend: Open Source CFD                    |
|  \\    /   O peration     | Version:     4.1                                |
|   \\  /    A nd           | Web:         http://www.foam-extend.org         |
|    \\/     M anipulation  |                                                 |
\*---------------------------------------------------------------------------*/
FoamFile
{
    version     2.0;
    format      binary;
    class       regIOobject;
    location    "0.014/uniform";
    object      profilingInfo;
}
// * * * * * * * * * * * * * * * * * * * * * * * * * * * * * * * * * * * * * //

profilingInfo
(

    {
        id              28;
        parentId        27;
        description     "Foam::Time::writeObject - outputTime";
        calls           14;
        totalTime       0.097912;
        childTime       0;
        onStack         1;
    }

    {
        id              27;
        parentId        1;
        description     "Foam::Time::writeObject";
        calls           14;
        totalTime       0.097981;
        childTime       0.097912;
        onStack         1;
    }

    {
        id              1;
        description     "application::main";
        calls           1;
        totalTime       1974.08;
        childTime       616.8;
        onStack         1;
    }

    {
        id              24;
        parentId        1;
        description     "FO::displacement::execute";
        calls           559;
        totalTime       0.00623;
        childTime       0;
        onStack         0;
    }

    {
        id              3;
        parentId        2;
        description     "FO::displacement::start";
        calls           1;
        totalTime       3e-06;
        childTime       0;
        onStack         0;
    }

    {
        id              26;
        parentId        1;
        description     "FO::forces::execute";
        calls           559;
        totalTime       0.649905;
        childTime       0;
        onStack         0;
    }

    {
        id              5;
        parentId        2;
        description     "FO::forces::start";
        calls           1;
        totalTime       5e-05;
        childTime       0;
        onStack         0;
    }

    {
        id              25;
        parentId        1;
        description     "FO::solidForce::execute";
        calls           559;
        totalTime       0.020084;
        childTime       0;
        onStack         0;
    }

    {
        id              4;
        parentId        2;
        description     "FO::solidForce::start";
        calls           1;
        totalTime       4e-05;
        childTime       0;
        onStack         0;
    }

    {
        id              2;
        parentId        1;
        description     "functionObjectList::read";
        calls           1;
        totalTime       0.007921;
        childTime       9.3e-05;
        onStack         0;
    }

    {
        id              20;
        parentId        1;
        description     "fvMatrix::solve_D";
        calls           161639;
        totalTime       210.952;
        childTime       164.602;
        onStack         0;
    }

    {
        id              13;
        parentId        1;
        description     "fvMatrix::solve_U";
        calls           18234;
        totalTime       58.7135;
        childTime       49.6206;
        onStack         0;
    }

    {
        id              6;
        parentId        1;
        description     "fvMatrix::solve_cellMotionU";
        calls           5777;
        totalTime       31.8923;
        childTime       29.1261;
        onStack         0;
    }

    {
        id              17;
        parentId        1;
        description     "fvMatrix::solve_p";
        calls           109404;
        totalTime       314.46;
        childTime       298.715;
        onStack         0;
    }

    {
        id              21;
        parentId        20;
        description     "lduMatrix::solver_Dx";
        calls           161639;
        totalTime       56.8369;
        childTime       0;
        onStack         0;
    }

    {
        id              22;
        parentId        20;
        description     "lduMatrix::solver_Dy";
        calls           161639;
        totalTime       55.2246;
        childTime       0;
        onStack         0;
    }

    {
        id              23;
        parentId        20;
        description     "lduMatrix::solver_Dz";
        calls           161639;
        totalTime       52.5407;
        childTime       0;
        onStack         0;
    }

    {
        id              14;
        parentId        13;
        description     "lduMatrix::solver_Ux";
        calls           18234;
        totalTime       17.0639;
        childTime       0;
        onStack         0;
    }

    {
        id              15;
        parentId        13;
        description     "lduMatrix::solver_Uy";
        calls           18234;
        totalTime       16.3023;
        childTime       0;
        onStack         0;
    }

    {
        id              16;
        parentId        13;
        description     "lduMatrix::solver_Uz";
        calls           18234;
        totalTime       16.2544;
        childTime       0;
        onStack         0;
    }

    {
        id              7;
        parentId        6;
        description     "lduMatrix::solver_cellMotionUx";
        calls           5777;
        totalTime       9.40026;
        childTime       0.055856;
        onStack         0;
    }

    {
        id              9;
        parentId        6;
        description     "lduMatrix::solver_cellMotionUy";
        calls           5777;
        totalTime       8.96232;
        childTime       0.040218;
        onStack         0;
    }

    {
        id              11;
        parentId        6;
        description     "lduMatrix::solver_cellMotionUz";
        calls           5777;
        totalTime       10.7635;
        childTime       0.047498;
        onStack         0;
    }

    {
        id              8;
        parentId        7;
        description     "lduMatrix::solver_coarsestLevelCorr";
        calls           6343;
        totalTime       0.055856;
        childTime       0;
        onStack         0;
    }

    {
        id              10;
        parentId        9;
        description     "lduMatrix::solver_coarsestLevelCorr";
        calls           6354;
        totalTime       0.040218;
        childTime       0;
        onStack         0;
    }

    {
        id              12;
        parentId        11;
        description     "lduMatrix::solver_coarsestLevelCorr";
        calls           8018;
        totalTime       0.047498;
        childTime       0;
        onStack         0;
    }

    {
        id              19;
        parentId        18;
        description     "lduMatrix::solver_coarsestLevelCorr";
        calls           244218;
        totalTime       2.14468;
        childTime       0;
        onStack         0;
    }

    {
        id              18;
        parentId        17;
        description     "lduMatrix::solver_p";
        calls           109404;
        totalTime       298.715;
        childTime       2.14468;
        onStack         0;
    }
);


// ************************************************************************* //
