/*--------------------------------*- C++ -*----------------------------------*\
| =========                 |                                                 |
| \\      /  F ield         | foam-extend: Open Source CFD                    |
|  \\    /   O peration     | Version:     4.1                                |
|   \\  /    A nd           | Web:         http://www.foam-extend.org         |
|    \\/     M anipulation  |                                                 |
\*---------------------------------------------------------------------------*/
FoamFile
{
    version     2.0;
    format      binary;
    class       regIOobject;
    location    "0.005/uniform";
    object      profilingInfo;
}
// * * * * * * * * * * * * * * * * * * * * * * * * * * * * * * * * * * * * * //

profilingInfo
(

    {
        id              28;
        parentId        27;
        description     "Foam::Time::writeObject - outputTime";
        calls           5;
        totalTime       0.033101;
        childTime       0;
        onStack         1;
    }

    {
        id              27;
        parentId        1;
        description     "Foam::Time::writeObject";
        calls           5;
        totalTime       0.033147;
        childTime       0.033101;
        onStack         1;
    }

    {
        id              1;
        description     "application::main";
        calls           1;
        totalTime       696.522;
        childTime       217.652;
        onStack         1;
    }

    {
        id              24;
        parentId        1;
        description     "FO::displacement::execute";
        calls           199;
        totalTime       0.00209;
        childTime       0;
        onStack         0;
    }

    {
        id              3;
        parentId        2;
        description     "FO::displacement::start";
        calls           1;
        totalTime       3e-06;
        childTime       0;
        onStack         0;
    }

    {
        id              26;
        parentId        1;
        description     "FO::forces::execute";
        calls           199;
        totalTime       0.22517;
        childTime       0;
        onStack         0;
    }

    {
        id              5;
        parentId        2;
        description     "FO::forces::start";
        calls           1;
        totalTime       5e-05;
        childTime       0;
        onStack         0;
    }

    {
        id              25;
        parentId        1;
        description     "FO::solidForce::execute";
        calls           199;
        totalTime       0.006288;
        childTime       0;
        onStack         0;
    }

    {
        id              4;
        parentId        2;
        description     "FO::solidForce::start";
        calls           1;
        totalTime       4e-05;
        childTime       0;
        onStack         0;
    }

    {
        id              2;
        parentId        1;
        description     "functionObjectList::read";
        calls           1;
        totalTime       0.007921;
        childTime       9.3e-05;
        onStack         0;
    }

    {
        id              20;
        parentId        1;
        description     "fvMatrix::solve_D";
        calls           60365;
        totalTime       78.6486;
        childTime       61.9827;
        onStack         0;
    }

    {
        id              13;
        parentId        1;
        description     "fvMatrix::solve_U";
        calls           6461;
        totalTime       20.5253;
        childTime       17.2754;
        onStack         0;
    }

    {
        id              6;
        parentId        1;
        description     "fvMatrix::solve_cellMotionU";
        calls           2066;
        totalTime       11.0966;
        childTime       10.1835;
        onStack         0;
    }

    {
        id              17;
        parentId        1;
        description     "fvMatrix::solve_p";
        calls           38766;
        totalTime       107.107;
        childTime       102.111;
        onStack         0;
    }

    {
        id              21;
        parentId        20;
        description     "lduMatrix::solver_Dx";
        calls           60365;
        totalTime       21.5204;
        childTime       0;
        onStack         0;
    }

    {
        id              22;
        parentId        20;
        description     "lduMatrix::solver_Dy";
        calls           60365;
        totalTime       20.901;
        childTime       0;
        onStack         0;
    }

    {
        id              23;
        parentId        20;
        description     "lduMatrix::solver_Dz";
        calls           60365;
        totalTime       19.5613;
        childTime       0;
        onStack         0;
    }

    {
        id              14;
        parentId        13;
        description     "lduMatrix::solver_Ux";
        calls           6461;
        totalTime       5.93486;
        childTime       0;
        onStack         0;
    }

    {
        id              15;
        parentId        13;
        description     "lduMatrix::solver_Uy";
        calls           6461;
        totalTime       5.67981;
        childTime       0;
        onStack         0;
    }

    {
        id              16;
        parentId        13;
        description     "lduMatrix::solver_Uz";
        calls           6461;
        totalTime       5.66075;
        childTime       0;
        onStack         0;
    }

    {
        id              7;
        parentId        6;
        description     "lduMatrix::solver_cellMotionUx";
        calls           2066;
        totalTime       3.31806;
        childTime       0.019579;
        onStack         0;
    }

    {
        id              9;
        parentId        6;
        description     "lduMatrix::solver_cellMotionUy";
        calls           2066;
        totalTime       3.1444;
        childTime       0.013653;
        onStack         0;
    }

    {
        id              11;
        parentId        6;
        description     "lduMatrix::solver_cellMotionUz";
        calls           2066;
        totalTime       3.72102;
        childTime       0.01489;
        onStack         0;
    }

    {
        id              8;
        parentId        7;
        description     "lduMatrix::solver_coarsestLevelCorr";
        calls           2272;
        totalTime       0.019579;
        childTime       0;
        onStack         0;
    }

    {
        id              10;
        parentId        9;
        description     "lduMatrix::solver_coarsestLevelCorr";
        calls           2283;
        totalTime       0.013653;
        childTime       0;
        onStack         0;
    }

    {
        id              12;
        parentId        11;
        description     "lduMatrix::solver_coarsestLevelCorr";
        calls           2892;
        totalTime       0.01489;
        childTime       0;
        onStack         0;
    }

    {
        id              19;
        parentId        18;
        description     "lduMatrix::solver_coarsestLevelCorr";
        calls           84517;
        totalTime       0.723957;
        childTime       0;
        onStack         0;
    }

    {
        id              18;
        parentId        17;
        description     "lduMatrix::solver_p";
        calls           38766;
        totalTime       102.111;
        childTime       0.723957;
        onStack         0;
    }
);


// ************************************************************************* //
