/*--------------------------------*- C++ -*----------------------------------*\
| =========                 |                                                 |
| \\      /  F ield         | foam-extend: Open Source CFD                    |
|  \\    /   O peration     | Version:     4.1                                |
|   \\  /    A nd           | Web:         http://www.foam-extend.org         |
|    \\/     M anipulation  |                                                 |
\*---------------------------------------------------------------------------*/
FoamFile
{
    version     2.0;
    format      binary;
    class       regIOobject;
    location    "0.003/uniform";
    object      profilingInfo;
}
// * * * * * * * * * * * * * * * * * * * * * * * * * * * * * * * * * * * * * //

profilingInfo
(

    {
        id              28;
        parentId        27;
        description     "Foam::Time::writeObject - outputTime";
        calls           3;
        totalTime       0.018999;
        childTime       0;
        onStack         1;
    }

    {
        id              27;
        parentId        1;
        description     "Foam::Time::writeObject";
        calls           3;
        totalTime       0.019041;
        childTime       0.018999;
        onStack         1;
    }

    {
        id              1;
        description     "application::main";
        calls           1;
        totalTime       438.856;
        childTime       136.022;
        onStack         1;
    }

    {
        id              24;
        parentId        1;
        description     "FO::displacement::execute";
        calls           119;
        totalTime       0.001258;
        childTime       0;
        onStack         0;
    }

    {
        id              3;
        parentId        2;
        description     "FO::displacement::start";
        calls           1;
        totalTime       3e-06;
        childTime       0;
        onStack         0;
    }

    {
        id              26;
        parentId        1;
        description     "FO::forces::execute";
        calls           119;
        totalTime       0.134791;
        childTime       0;
        onStack         0;
    }

    {
        id              5;
        parentId        2;
        description     "FO::forces::start";
        calls           1;
        totalTime       5e-05;
        childTime       0;
        onStack         0;
    }

    {
        id              25;
        parentId        1;
        description     "FO::solidForce::execute";
        calls           119;
        totalTime       0.003722;
        childTime       0;
        onStack         0;
    }

    {
        id              4;
        parentId        2;
        description     "FO::solidForce::start";
        calls           1;
        totalTime       4e-05;
        childTime       0;
        onStack         0;
    }

    {
        id              2;
        parentId        1;
        description     "functionObjectList::read";
        calls           1;
        totalTime       0.007921;
        childTime       9.3e-05;
        onStack         0;
    }

    {
        id              20;
        parentId        1;
        description     "fvMatrix::solve_D";
        calls           39336;
        totalTime       51.054;
        childTime       40.1808;
        onStack         0;
    }

    {
        id              13;
        parentId        1;
        description     "fvMatrix::solve_U";
        calls           3957;
        totalTime       12.4765;
        childTime       10.5913;
        onStack         0;
    }

    {
        id              6;
        parentId        1;
        description     "fvMatrix::solve_cellMotionU";
        calls           1319;
        totalTime       7.06689;
        childTime       6.4984;
        onStack         0;
    }

    {
        id              17;
        parentId        1;
        description     "fvMatrix::solve_p";
        calls           23742;
        totalTime       65.2575;
        childTime       62.1493;
        onStack         0;
    }

    {
        id              21;
        parentId        20;
        description     "lduMatrix::solver_Dx";
        calls           39336;
        totalTime       13.9247;
        childTime       0;
        onStack         0;
    }

    {
        id              22;
        parentId        20;
        description     "lduMatrix::solver_Dy";
        calls           39336;
        totalTime       13.531;
        childTime       0;
        onStack         0;
    }

    {
        id              23;
        parentId        20;
        description     "lduMatrix::solver_Dz";
        calls           39336;
        totalTime       12.7251;
        childTime       0;
        onStack         0;
    }

    {
        id              14;
        parentId        13;
        description     "lduMatrix::solver_Ux";
        calls           3957;
        totalTime       3.64146;
        childTime       0;
        onStack         0;
    }

    {
        id              15;
        parentId        13;
        description     "lduMatrix::solver_Uy";
        calls           3957;
        totalTime       3.4815;
        childTime       0;
        onStack         0;
    }

    {
        id              16;
        parentId        13;
        description     "lduMatrix::solver_Uz";
        calls           3957;
        totalTime       3.46836;
        childTime       0;
        onStack         0;
    }

    {
        id              7;
        parentId        6;
        description     "lduMatrix::solver_cellMotionUx";
        calls           1319;
        totalTime       2.11968;
        childTime       0.012522;
        onStack         0;
    }

    {
        id              9;
        parentId        6;
        description     "lduMatrix::solver_cellMotionUy";
        calls           1319;
        totalTime       2.01175;
        childTime       0.008746;
        onStack         0;
    }

    {
        id              11;
        parentId        6;
        description     "lduMatrix::solver_cellMotionUz";
        calls           1319;
        totalTime       2.36697;
        childTime       0.009447;
        onStack         0;
    }

    {
        id              8;
        parentId        7;
        description     "lduMatrix::solver_coarsestLevelCorr";
        calls           1445;
        totalTime       0.012522;
        childTime       0;
        onStack         0;
    }

    {
        id              10;
        parentId        9;
        description     "lduMatrix::solver_coarsestLevelCorr";
        calls           1456;
        totalTime       0.008746;
        childTime       0;
        onStack         0;
    }

    {
        id              12;
        parentId        11;
        description     "lduMatrix::solver_coarsestLevelCorr";
        calls           1831;
        totalTime       0.009447;
        childTime       0;
        onStack         0;
    }

    {
        id              19;
        parentId        18;
        description     "lduMatrix::solver_coarsestLevelCorr";
        calls           51345;
        totalTime       0.442851;
        childTime       0;
        onStack         0;
    }

    {
        id              18;
        parentId        17;
        description     "lduMatrix::solver_p";
        calls           23742;
        totalTime       62.1493;
        childTime       0.442851;
        onStack         0;
    }
);


// ************************************************************************* //
